64
Lattice="10.818552 0 0 0 10.818552 0 0 0 10.818552 " PBC="1 1 1" Properties=species:S:1:pos:R:3:force:R:3 Energy="-277.028441263"
Si    1.94345e-02   1.08171e+01   1.08038e+01 -3.04999e-01  -1.19931e-01   2.19246e-01
Si    2.68520e+00   2.72035e+00   1.08027e+01  2.16397e-01   1.48205e-01   1.02038e-01
Si    3.11776e-02   2.68239e+00   2.68209e+00 -1.60307e-01   2.36139e-01   2.80997e-01
Si    2.69900e+00   1.07869e+01   2.69633e+00  3.02073e-01   4.62809e-01   1.44905e-01
Si    1.38077e+00   1.35736e+00   1.33078e+00 -1.63709e-01  -4.08709e-01   8.95550e-02
Si    4.04097e+00   4.05530e+00   1.36397e+00  3.24450e-01  -2.13461e-01  -4.73250e-01
Si    1.36085e+00   4.03752e+00   4.06283e+00 -1.18518e-01   5.53835e-01  -4.11985e-01
Si    4.07535e+00   1.34875e+00   4.05552e+00 -4.32722e-01  -9.92807e-02  -2.95316e-01
Si    5.38161e+00   1.08041e+01   1.08136e+01  2.45950e-02   5.24336e-01   2.40889e-01
Si    8.12878e+00   2.71278e+00   1.61835e-02 -1.46780e-01  -2.66976e-01  -4.59681e-01
Si    5.41869e+00   2.68501e+00   2.68381e+00 -2.75262e-02   9.03449e-02   1.05776e-03
Si    8.11994e+00   1.85428e-02   2.70031e+00  3.00302e-01  -2.76185e-01   3.88959e-01
Si    6.79162e+00   1.33116e+00   1.34617e+00 -5.66842e-01   1.77808e-01  -2.79391e-01
Si    9.48023e+00   4.03759e+00   1.35167e+00  7.81738e-02   3.29970e-01   1.64336e-01
Si    6.74564e+00   4.07048e+00   4.02317e+00 -1.34622e-01  -3.62267e-01   5.55580e-01
Si    9.48666e+00   1.37986e+00   4.07270e+00 -1.19312e-01  -3.43405e-01   4.86905e-03
Si    2.60034e-02   5.39731e+00   1.80991e-04 -5.50598e-01   3.94288e-01   2.32313e-01
Si    2.70135e+00   8.08305e+00   1.07998e+01  2.56727e-01   5.21754e-01   4.57081e-01
Si    1.08099e+01   8.10844e+00   2.71813e+00  5.30877e-01   2.18991e-01  -5.54716e-01
Si    2.72457e+00   5.41198e+00   2.68552e+00 -1.76769e-01  -1.61825e-01   7.62427e-01
Si    1.38040e+00   6.74396e+00   1.35939e+00 -5.21375e-01   2.84026e-01  -6.00784e-02
Si    4.07165e+00   9.43911e+00   1.37308e+00 -5.17378e-01  -4.04366e-03  -5.97651e-01
Si    1.35899e+00   9.46315e+00   4.06604e+00 -1.79398e-02  -3.41311e-01  -2.29956e-02
Si    4.07658e+00   6.76412e+00   4.05606e+00 -3.07694e-01  -1.68248e-01  -3.31891e-01
Si    5.38957e+00   5.41243e+00   1.08088e+01  1.81833e-01  -1.53018e-01   5.28528e-01
Si    8.10208e+00   8.11924e+00   5.58250e-03 -1.68510e-01  -2.80615e-01  -1.12954e-01
Si    5.40069e+00   8.10107e+00   2.69550e+00  5.53871e-01   9.16239e-02   4.25806e-01
Si    8.08784e+00   5.38775e+00   2.70011e+00  8.73860e-01   3.86752e-01  -1.43705e-02
Si    6.75464e+00   6.74321e+00   1.36598e+00 -7.96713e-02   1.54691e-01  -4.05550e-01
Si    9.44434e+00   9.44817e+00   1.34776e+00  5.19445e-01   4.19255e-01   7.40994e-02
Si    6.77481e+00   9.46616e+00   4.06153e+00 -4.42160e-01   2.94208e-01  -1.56703e-01
Si    9.49246e+00   6.78258e+00   4.04178e+00 -6.33216e-01  -6.82603e-01   2.90520e-01
Si    1.20035e-02   1.07901e+01   5.42664e+00 -1.93083e-03   6.71880e-01  -1.85625e-02
Si    2.69619e+00   2.70006e+00   5.38409e+00  6.26067e-01   4.48119e-02   4.39478e-01
Si    1.08097e+01   2.70598e+00   8.10309e+00 -8.88002e-02   6.67636e-02   1.03430e-01
Si    2.67896e+00   1.08153e+01   8.12038e+00  5.23948e-01   1.81017e-01  -2.97786e-01
Si    1.37684e+00   1.37611e+00   6.76954e+00 -4.97247e-01  -4.11115e-01  -2.21612e-01
Si    4.07847e+00   4.04207e+00   6.77322e+00 -5.01580e-01   9.58097e-02  -2.82832e-01
Si    1.32717e+00   4.06989e+00   9.47127e+00  1.80229e-01  -3.89136e-01  -3.19406e-01
Si    4.02326e+00   1.36945e+00   9.45538e+00  2.46815e-01  -3.63714e-01   1.75769e-01
Si    5.39693e+00   2.39178e-02   5.42887e+00  2.36964e-01  -6.49593e-01  -2.08004e-01
Si    8.09814e+00   2.73291e+00   5.42256e+00  1.06217e-01  -8.19547e-02  -6.12782e-01
Si    5.41120e+00   2.68672e+00   8.12141e+00  3.51904e-01   4.67927e-02  -7.69186e-02
Si    8.10618e+00   1.08046e+01   8.10944e+00 -3.61478e-02   7.23738e-02  -7.02806e-02
Si    6.78785e+00   1.34502e+00   6.73943e+00 -3.86397e-01   1.90397e-01   5.31044e-01
Si    9.44420e+00   4.06293e+00   6.75891e+00  6.10902e-01   3.28893e-03  -1.27495e-01
Si    6.75224e+00   4.06987e+00   9.48352e+00  2.87821e-01  -2.33346e-01  -2.77769e-01
Si    9.45641e+00   1.33307e+00   9.44813e+00  1.55461e-01   2.80001e-01   2.23842e-01
Si    1.58638e-02   5.42378e+00   5.42246e+00 -1.97482e-01  -2.82407e-01  -2.42560e-01
Si    2.73062e+00   8.08946e+00   5.39768e+00 -3.92574e-01   2.24837e-01   1.64271e-01
Si    1.08031e+01   8.11400e+00   8.13749e+00  4.26944e-01   2.38096e-01  -5.31981e-01
Si    2.68686e+00   5.39545e+00   8.12299e+00  5.76471e-01   8.03337e-02   8.52207e-02
Si    1.36949e+00   6.75339e+00   6.77177e+00 -2.11510e-01   3.51291e-01   7.34454e-02
Si    4.03870e+00   9.45223e+00   6.76748e+00  2.48417e-01   1.57609e-01   7.66834e-02
Si    1.38117e+00   9.47618e+00   9.46100e+00 -5.54331e-01  -4.46515e-01   1.65327e-01
Si    4.07121e+00   6.76303e+00   9.48269e+00 -3.87310e-01  -2.99763e-01  -5.80462e-01
Si    5.39127e+00   5.41619e+00   5.39216e+00  4.48430e-01  -9.17012e-02   3.90527e-01
Si    8.13328e+00   8.13553e+00   5.39762e+00 -3.57758e-01  -5.36996e-01   4.76976e-02
Si    5.41215e+00   8.08515e+00   8.10877e+00 -2.05828e-01   8.76217e-01   4.97061e-01
Si    8.14427e+00   5.40004e+00   8.10711e+00 -7.86768e-01   4.57779e-01   2.42189e-01
Si    6.74275e+00   6.79059e+00   6.77307e+00  7.12982e-01  -6.96957e-01  -5.63586e-01
Si    9.44526e+00   9.46072e+00   6.74860e+00  4.29208e-01  -1.73981e-03   4.75404e-01
Si    6.74798e+00   9.49365e+00   9.48620e+00 -2.88083e-02  -6.43636e-01  -4.48809e-01
Si    9.47365e+00   6.77153e+00   9.46519e+00 -1.06267e-01  -3.17880e-01   4.02784e-01
64
Lattice="10.840276 0 0 0 10.840276 0 0 0 10.840276 " PBC="1 1 1" Properties=species:S:1:pos:R:3:force:R:3 Energy="-276.987505904"
Si    3.81073e-03   9.99934e-03   2.14471e-02 -4.09671e-01  -3.45299e-01  -5.70719e-01
Si    2.70610e+00   2.72406e+00   1.87111e-02 -4.56276e-02  -2.59045e-01  -2.13291e-01
Si    1.98096e-02   2.72428e+00   2.69647e+00 -5.33659e-01  -5.06492e-01  -2.37319e-01
Si    2.73234e+00   1.08376e+01   2.70144e+00 -7.19653e-01   1.63119e-01   4.99513e-01
Si    1.34036e+00   1.33781e+00   1.33594e+00  5.26060e-01   3.50015e-01   5.31437e-01
Si    4.04920e+00   4.08954e+00   1.34441e+00  3.99881e-01  -3.29724e-01   4.85008e-01
Si    1.33746e+00   4.04299e+00   4.03689e+00  3.24844e-02   5.04375e-01   5.13251e-01
Si    4.04912e+00   1.38355e+00   4.07240e+00  2.83569e-01  -4.33530e-01  -3.08495e-01
Si    5.40172e+00   1.08151e+01   1.85954e-02  4.12234e-01   3.11650e-01  -2.43338e-02
Si    8.14880e+00   2.73246e+00   1.08384e+01 -9.37734e-02  -1.85467e-01  -1.34144e-01
Si    5.43806e+00   2.68589e+00   2.69958e+00 -4.23850e-01   7.39027e-01   1.32629e-01
Si    8.13902e+00   1.29322e-02   2.69121e+00 -2.24517e-01  -3.84396e-01   2.21546e-01
Si    6.79181e+00   1.37001e+00   1.36384e+00 -1.19092e-01  -3.43366e-01  -5.79849e-01
Si    9.51309e+00   4.08538e+00   1.33914e+00 -3.49671e-01  -3.43794e-01   3.54874e-01
Si    6.79251e+00   4.04733e+00   4.07743e+00 -2.17847e-01   2.01287e-01  -3.06082e-01
Si    9.46418e+00   1.36196e+00   4.04317e+00  5.63790e-01   1.92013e-02  -2.67234e-02
Si    1.08290e+01   5.38698e+00   1.08192e+01  2.50882e-01   1.05595e+00   2.23670e-01
Si    2.70324e+00   8.12711e+00   1.08187e+01  2.00355e-02   3.38304e-02   4.66063e-01
Si    1.84595e-02   8.14313e+00   2.69389e+00 -4.94775e-01   1.41011e-01   3.08656e-01
Si    2.70013e+00   5.41166e+00   2.73365e+00  1.91386e-01   3.85898e-01  -1.53397e-01
Si    1.34557e+00   6.78346e+00   1.37011e+00  1.41366e-01  -4.65740e-01  -5.33867e-01
Si    4.05285e+00   9.47645e+00   1.38713e+00  1.29095e-01  -3.47818e-01  -5.54201e-01
Si    1.33655e+00   9.48783e+00   4.09615e+00  3.18733e-01   2.59537e-01  -7.18518e-01
Si    4.09121e+00   6.78434e+00   4.08011e+00 -4.51426e-01  -2.43443e-01  -4.56744e-01
Si    5.41557e+00   5.44078e+00   1.14846e-02 -1.45035e-01  -2.15955e-01  -4.43710e-01
Si    8.14099e+00   8.12835e+00   1.14545e-02 -4.21333e-01  -2.65376e-01  -3.59709e-01
Si    5.42383e+00   8.12112e+00   2.70955e+00  3.40397e-01   1.67482e-01   2.13028e-01
Si    8.15277e+00   5.41799e+00   2.71748e+00 -1.22706e-02   7.28125e-02   8.19021e-02
Si    6.77916e+00   6.76058e+00   1.35425e+00  1.69124e-01   2.27365e-01   1.99279e-01
Si    9.45592e+00   9.47443e+00   1.33158e+00  6.59643e-01   2.99564e-01   4.41562e-01
Si    6.80262e+00   9.48052e+00   4.08852e+00 -5.73818e-01   4.71733e-01  -8.69636e-01
Si    9.50962e+00   6.79288e+00   4.08506e+00 -3.16647e-01   4.76335e-02  -6.61072e-01
Si    1.08166e+01   3.44421e-03   5.41650e+00  2.28623e-01   4.40903e-01   5.33990e-02
Si    2.67673e+00   2.70439e+00   5.39494e+00  3.78470e-01   4.62248e-01   7.49781e-01
Si    1.54266e-02   2.69705e+00   8.12700e+00  6.13878e-02   4.85468e-01   2.45734e-01
Si    2.73150e+00   1.92017e-02   8.15633e+00 -4.68453e-01  -3.67219e-01  -5.08118e-01
Si    1.34988e+00   1.36136e+00   6.79490e+00  1.45462e-01  -3.87832e-01  -3.96903e-01
Si    4.07951e+00   4.08371e+00   6.79827e+00 -7.76865e-01  -2.78132e-01  -4.85629e-01
Si    1.36175e+00   4.07557e+00   9.50667e+00 -1.58666e-01  -5.18031e-01  -3.49291e-01
Si    4.04994e+00   1.34565e+00   9.49939e+00  4.15496e-01   3.50930e-01   2.22108e-01
Si    5.42063e+00   1.54788e-02   5.40928e+00 -2.06415e-01  -2.27683e-01   2.07991e-01
Si    8.13373e+00   2.69000e+00   5.40859e+00  1.76561e-01   3.51934e-01   2.46409e-01
Si    5.40708e+00   2.69208e+00   8.11031e+00  3.99361e-02   1.46826e-01   4.79381e-01
Si    8.09737e+00   1.08316e+01   8.14273e+00  6.89413e-01   3.96918e-01  -5.42725e-01
Si    6.77326e+00   1.37958e+00   6.75865e+00 -2.88382e-02  -5.44277e-01   1.87679e-01
Si    9.49368e+00   4.04769e+00   6.78383e+00 -2.76056e-01   1.34094e-01  -8.75290e-02
Si    6.75567e+00   4.06196e+00   9.47996e+00 -1.50991e-01  -1.79435e-01   2.96401e-01
Si    9.50590e+00   1.36363e+00   9.46746e+00 -3.87887e-01  -2.54363e-01   3.14385e-01
Si    1.08184e+01   5.42148e+00   5.40320e+00  6.17884e-01  -2.54445e-01   4.95624e-01
Si    2.71459e+00   8.13208e+00   5.38683e+00 -3.14921e-01  -3.78526e-01   6.17719e-01
Si    1.67888e-02   8.12663e+00   8.13453e+00 -2.27772e-01   1.85024e-01  -1.45465e-01
Si    2.68210e+00   5.42499e+00   8.15414e+00  4.41675e-01  -4.34371e-01  -2.47666e-01
Si    1.37403e+00   6.75574e+00   6.80145e+00 -3.52700e-01   3.17398e-01  -8.01300e-01
Si    4.03137e+00   9.46768e+00   6.76072e+00  3.80539e-01   6.63375e-01   4.19594e-02
Si    1.35830e+00   9.50220e+00   9.48944e+00 -6.71328e-02  -3.66591e-03   1.16054e-02
Si    4.03583e+00   6.76052e+00   9.46320e+00  4.43082e-01   3.38120e-01   3.70568e-01
Si    5.40852e+00   5.41917e+00   5.40883e+00  3.72209e-01  -1.17023e-01   2.05638e-01
Si    8.11827e+00   8.14048e+00   5.38680e+00  4.95572e-01  -2.03313e-01   7.12221e-01
Si    5.39171e+00   8.15709e+00   8.13506e+00  1.73243e-01  -3.18481e-01  -9.73031e-02
Si    8.11632e+00   5.40022e+00   8.16325e+00 -1.24698e-01   4.88782e-01  -9.29574e-01
Si    6.74548e+00   6.80878e+00   6.74807e+00  3.52978e-01  -4.56876e-01   5.44393e-01
Si    9.49331e+00   9.49232e+00   6.75167e+00 -4.30475e-01  -2.60822e-01   5.01040e-01
Si    6.79493e+00   9.48376e+00   9.48309e+00 -6.04378e-01  -1.97740e-01   4.09116e-01
Si    9.47117e+00   6.78043e+00   9.47754e+00  2.77702e-01  -1.61834e-01   1.57740e-01
64
Lattice="10.862 0 0 0 10.862 0 0 0 10.862 " PBC="1 1 1" Properties=species:S:1:pos:R:3:force:R:3 Energy="-277.001833523"
Si    4.53479e-03   1.08546e+01   2.61523e-02 -1.69640e-01  -1.72531e-02  -6.31098e-01
Si    2.73315e+00   2.70611e+00   5.96214e-04 -1.26144e-02   1.85947e-01   7.65416e-02
Si    2.10993e-02   2.72969e+00   2.74058e+00 -6.13322e-01  -2.78287e-01  -8.92910e-01
Si    2.70070e+00   1.08608e+01   2.72953e+00  1.38443e-01   2.89168e-02  -3.45441e-01
Si    1.35928e+00   1.34339e+00   1.33014e+00  7.15574e-02   4.12533e-01   6.83730e-01
Si    4.09862e+00   4.05833e+00   1.38027e+00 -3.42851e-01   2.65682e-01  -5.56327e-01
Si    1.35391e+00   4.05558e+00   4.06830e+00  3.81380e-01   5.97560e-01  -1.21973e-01
Si    4.07995e+00   1.33221e+00   4.07931e+00 -1.47331e-01   3.18323e-01  -1.49387e-01
Si    5.44953e+00   1.08441e+01   1.08353e+01 -1.11897e-01   2.28588e-01   9.61314e-01
Si    8.13774e+00   2.69828e+00   6.11504e-03  6.11547e-01   1.97943e-01  -3.07010e-01
Si    5.42400e+00   2.70239e+00   2.70314e+00  2.51227e-01  -2.07244e-01   3.46522e-01
Si    8.13328e+00   5.36643e-03   2.72980e+00  1.64021e-01  -7.75807e-02  -1.60577e-01
Si    6.81440e+00   1.37131e+00   1.35063e+00 -6.04771e-01  -5.20426e-01   6.51372e-02
Si    9.47159e+00   4.09964e+00   1.35064e+00  7.10604e-01  -9.74503e-01   7.59306e-02
Si    6.76396e+00   4.07845e+00   4.06211e+00  5.43130e-01  -1.36664e-01  -1.73576e-02
Si    9.48979e+00   1.36950e+00   4.07227e+00  2.41170e-01  -6.76962e-02   2.44789e-01
Si    1.08444e+01   5.41686e+00   1.35685e-02  1.20141e-01   5.09627e-01  -1.32558e-01
Si    2.73795e+00   8.13048e+00   1.08481e+01 -4.82037e-01   4.84823e-02   4.35772e-01
Si    1.27322e-02   8.12084e+00   2.71384e+00 -2.70952e-01   6.09367e-01   1.99290e-01
Si    2.72360e+00   5.43757e+00   2.69193e+00 -3.10192e-01  -2.12491e-01   3.79165e-01
Si    1.33492e+00   6.80408e+00   1.36874e+00  5.08365e-01  -4.45163e-01  -5.59501e-01
Si    4.05193e+00   9.50631e+00   1.35963e+00  3.19689e-01   1.03717e-01  -1.66142e-01
Si    1.37087e+00   9.48504e+00   4.05809e+00 -4.01544e-01   2.08601e-01   4.53232e-01
Si    4.04199e+00   6.78507e+00   4.09473e+00  5.95155e-01  -2.38653e-01  -3.02189e-01
Si    5.42343e+00   5.44625e+00   1.08605e+01  2.58422e-01  -3.42799e-01   1.53228e-01
Si    8.16326e+00   8.12144e+00   1.08462e+01  1.27807e-01   4.03576e-01   5.39453e-01
Si    5.40798e+00   8.14923e+00   2.71873e+00  5.63072e-02  -4.09896e-01  -1.16985e-01
Si    8.17475e+00   5.42763e+00   2.68471e+00 -6.08753e-01   1.23662e-01   9.03052e-01
Si    6.81054e+00   6.76774e+00   1.37241e+00 -4.20113e-01   4.80967e-01  -2.79587e-01
Si    9.52469e+00   9.51751e+00   1.38317e+00 -4.36775e-01  -4.47594e-01  -1.57526e-01
Si    6.76973e+00   9.49076e+00   4.05662e+00  2.28597e-01   6.09642e-02   3.24680e-01
Si    9.49475e+00   6.81038e+00   4.06255e+00  5.08384e-02  -4.10367e-01   1.46264e-01
Si    1.08484e+01   1.08594e+01   5.45011e+00  3.09809e-01   1.47443e-01  -5.36118e-01
Si    2.69322e+00   2.70287e+00   5.40719e+00  3.36836e-01  -2.88445e-02   4.26116e-01
Si    2.57047e-02   2.72055e+00   8.12259e+00 -5.53258e-01   4.52569e-01   8.66391e-01
Si    2.71066e+00   1.08600e+01   8.14613e+00  1.16736e-01  -1.83448e-01   1.29805e-02
Si    1.32812e+00   1.38410e+00   6.81711e+00  6.48193e-01  -6.46792e-01  -6.71743e-01
Si    4.07566e+00   4.08496e+00   6.76107e+00 -2.45846e-01  -7.39504e-01   6.15006e-01
Si    1.36052e+00   4.09338e+00   9.52792e+00  1.24200e-02  -4.38841e-01  -2.62905e-01
Si    4.09207e+00   1.33817e+00   9.52649e+00 -1.20445e-01   1.92568e-01  -5.69139e-01
Si    5.44722e+00   3.69526e-03   5.42474e+00 -5.27260e-02  -2.83281e-01  -6.99381e-02
Si    8.14340e+00   2.71729e+00   5.45197e+00 -2.36450e-01   7.97860e-02  -3.51890e-01
Si    5.46203e+00   2.69955e+00   8.15008e+00 -3.49000e-01   2.52947e-01  -6.37954e-02
Si    8.13119e+00   1.08596e+01   8.14305e+00  3.78831e-01  -2.46289e-01   4.06159e-03
Si    6.80050e+00   1.32814e+00   6.78364e+00 -1.15624e-01   3.99213e-01   4.89888e-02
Si    9.48605e+00   4.06943e+00   6.81167e+00  6.02143e-01   6.63169e-02  -5.79819e-01
Si    6.81687e+00   4.07436e+00   9.52554e+00 -4.52865e-01  -1.01462e-02  -2.01307e-01
Si    9.51402e+00   1.34585e+00   9.47533e+00  7.22542e-02   1.52013e-01   3.78992e-01
Si    4.81683e-03   5.42811e+00   5.40542e+00 -1.95533e-01   1.57138e-01   4.73622e-01
Si    2.72911e+00   8.14671e+00   5.42437e+00 -1.25444e-01   2.58595e-01  -5.71145e-02
Si    2.51059e-02   8.13256e+00   8.14135e+00 -3.08198e-01   4.51886e-01  -2.70686e-01
Si    2.70337e+00   5.42837e+00   8.14071e+00  1.65087e-01   7.11987e-02  -1.01807e-01
Si    1.38595e+00   6.81761e+00   6.76951e+00 -3.68696e-01  -6.17919e-01   1.41579e-02
Si    4.09606e+00   9.49050e+00   6.75599e+00 -3.95217e-01   4.35793e-01   3.58527e-01
Si    1.35483e+00   9.47871e+00   9.52766e+00  1.48159e-01   3.30178e-01  -2.45460e-01
Si    4.06013e+00   6.77955e+00   9.50124e+00  1.67803e-01  -7.42398e-02  -2.51004e-01
Si    5.42593e+00   5.40758e+00   5.44815e+00  2.02440e-01   8.00703e-01  -3.57673e-01
Si    8.13026e+00   8.13580e+00   5.44736e+00  1.63443e-01   4.13689e-01  -6.28460e-01
Si    5.40530e+00   8.13840e+00   8.13210e+00  5.75700e-01   2.54198e-01   4.70848e-01
Si    8.15775e+00   5.41188e+00   8.14364e+00 -2.16973e-01   6.03812e-01   1.87945e-01
Si    6.80151e+00   6.81420e+00   6.78673e+00 -3.77034e-01  -8.13497e-01   2.91529e-01
Si    9.49341e+00   9.50791e+00   6.76468e+00  6.71922e-02  -3.05555e-01   6.60573e-01
Si    6.80717e+00   9.51342e+00   9.53102e+00 -2.36060e-01  -6.72231e-01  -7.50931e-01
Si    9.52433e+00   6.79639e+00   9.48474e+00 -6.32868e-02  -4.57299e-01   6.85193e-02
64
Lattice="10.883724 0 0 0 10.883724 0 0 0 10.883724 " PBC="1 1 1" Properties=species:S:1:pos:R:3:force:R:3 Energy="-277.045331247"
Si    3.15467e-02   2.86551e-02   1.14649e-02 -3.64602e-01  -5.78672e-01  -4.05587e-01
Si    2.70905e+00   2.70571e+00   1.08767e+01  3.59630e-01   6.51582e-01   1.07638e-01
Si    1.08589e+01   2.72505e+00   2.70798e+00  2.47749e-01   1.84430e-01   1.35101e-01
Si    2.74589e+00   1.48724e-02   2.69950e+00 -2.53000e-01  -2.18558e-01   5.22072e-03
Si    1.35165e+00   1.38552e+00   1.35983e+00  2.37625e-01  -1.79285e-01   2.39922e-01
Si    4.10186e+00   4.10406e+00   1.37949e+00 -3.20608e-01  -5.07919e-01  -6.09608e-01
Si    1.36459e+00   4.07296e+00   4.06326e+00 -1.58522e-03  -1.97155e-01   2.96606e-01
Si    4.08184e+00   1.38033e+00   4.06630e+00 -1.16487e-01  -4.81889e-01   3.84072e-01
Si    5.41513e+00   3.06908e-02   2.86194e-02  4.08958e-01  -4.34733e-01  -4.80027e-01
Si    8.14649e+00   2.69115e+00   1.08581e+01  2.76314e-01   4.03588e-01   2.53613e-01
Si    5.41375e+00   2.70410e+00   2.72803e+00  7.46711e-01   6.24762e-01  -6.39511e-02
Si    8.19694e+00   1.08716e+01   2.70916e+00 -5.24037e-01   3.67205e-01  -3.53501e-02
Si    6.77725e+00   1.36788e+00   1.34711e+00  4.36299e-01  -1.86032e-01   5.31801e-01
Si    9.49585e+00   4.09418e+00   1.38042e+00 -2.22603e-01  -4.56646e-01  -4.12736e-01
Si    6.81857e+00   4.09402e+00   4.08453e+00 -8.76569e-01  -3.78000e-01  -8.23590e-02
Si    9.52685e+00   1.38756e+00   4.08729e+00 -4.27868e-02  -4.42650e-01   1.69269e-03
Si    1.08604e+01   5.42548e+00   1.33949e-02  2.73023e-01   1.39765e-02  -1.49052e-01
Si    2.73490e+00   8.16884e+00   1.08613e+01 -2.96296e-01  -3.26098e-01   3.39435e-01
Si    1.08658e+01   8.16303e+00   2.72412e+00  2.53666e-01   5.02475e-01  -3.64001e-02
Si    2.73552e+00   5.42301e+00   2.72692e+00 -5.56274e-01   4.50125e-01  -3.14567e-01
Si    1.32682e+00   6.81895e+00   1.36387e+00  6.66994e-01  -3.37446e-01  -9.83342e-02
Si    4.10338e+00   9.50350e+00   1.33453e+00 -5.17527e-01   4.33944e-01   2.25351e-01
Si    1.37778e+00   9.54052e+00   4.09519e+00  1.98875e-01  -4.12326e-01  -5.09665e-01
Si    4.06925e+00   6.77841e+00   4.07624e+00  4.09591e-01   3.95585e-01  -4.99014e-01
Si    5.45059e+00   5.44190e+00   1.08629e+01  1.73831e-01   1.84512e-02   1.78353e-01
Si    8.13722e+00   8.18182e+00   1.08692e+01  2.18267e-01  -3.66982e-01   4.03770e-02
Si    5.43196e+00   8.18176e+00   2.70448e+00  4.30525e-02  -6.20380e-01   2.56704e-01
Si    8.13932e+00   5.42502e+00   2.74740e+00  3.55716e-01   6.43108e-01  -3.83037e-01
Si    6.80757e+00   6.81372e+00   1.36304e+00 -1.55136e-01  -1.84223e-01  -3.86825e-02
Si    9.51439e+00   9.51326e+00   1.32537e+00  4.04476e-01   2.04961e-01   1.99311e-01
Si    6.80293e+00   9.51115e+00   4.05932e+00  8.40409e-02   3.20851e-01   9.13491e-02
Si    9.53858e+00   6.80399e+00   4.06714e+00 -4.93312e-01  -1.00409e-01   3.54147e-01
Si    2.49185e-02   1.08813e+01   5.43403e+00 -4.55684e-01   2.70042e-01   7.20278e-02
Si    2.73163e+00   2.70585e+00   5.45666e+00 -6.88323e-02   5.43300e-01  -4.57601e-01
Si    1.08705e+01   2.72322e+00   8.16023e+00  2.32664e-01  -1.97502e-01  -1.97451e-01
Si    2.69047e+00   1.08823e+01   8.16313e+00  4.69239e-01   2.42734e-01  -6.78957e-02
Si    1.35964e+00   1.38919e+00   6.77529e+00 -1.62806e-01  -4.54162e-01   5.53683e-01
Si    4.05585e+00   4.09904e+00   6.81538e+00  7.02810e-01  -2.78660e-01  -4.14559e-01
Si    1.35139e+00   4.07365e+00   9.49375e+00 -2.81244e-02   3.78009e-02   6.02409e-01
Si    4.10903e+00   1.37472e+00   9.53152e+00 -5.92918e-01  -1.55065e-01  -3.91275e-01
Si    5.44151e+00   1.08819e+01   5.42400e+00 -4.11745e-02  -5.83607e-03   2.16296e-01
Si    8.14598e+00   2.74429e+00   5.43074e+00  3.53522e-01  -2.31377e-01   1.31613e-01
Si    5.45607e+00   2.73792e+00   8.15767e+00 -3.48062e-01  -2.34880e-01  -3.07279e-01
Si    8.17674e+00   7.27574e-03   8.13745e+00 -2.47986e-01  -1.83308e-01   2.02045e-01
Si    6.81570e+00   1.38003e+00   6.79154e+00 -2.79529e-01  -2.29784e-01  -8.12331e-02
Si    9.53110e+00   4.05663e+00   6.79905e+00 -2.25604e-01   6.70614e-01  -7.05519e-02
Si    6.80381e+00   4.05778e+00   9.49330e+00  2.56348e-01   6.06138e-01   2.49475e-01
Si    9.53379e+00   1.35146e+00   9.50415e+00  2.49335e-03  -4.08388e-02   2.15313e-01
Si    7.98539e-03   5.44151e+00   5.43120e+00 -3.95246e-02  -1.72059e-01   2.73296e-02
Si    2.75730e+00   8.13209e+00   5.42136e+00 -6.38885e-01   3.79762e-01   1.92488e-01
Si    1.08633e+01   8.14589e+00   8.15161e+00 -4.10428e-02   3.79835e-02   1.33322e-01
Si    2.74316e+00   5.41905e+00   8.17785e+00 -6.17107e-01   7.53191e-01  -1.92833e-01
Si    1.35850e+00   6.81208e+00   6.78630e+00  3.41529e-01  -3.96711e-01   2.78498e-01
Si    4.06303e+00   9.50016e+00   6.80470e+00  2.16339e-01   4.09317e-01  -8.13048e-02
Si    1.36276e+00   9.49796e+00   9.51426e+00 -3.27838e-01   3.40915e-01   6.20548e-02
Si    4.08998e+00   6.81161e+00   9.51744e+00 -1.49668e-01  -3.63742e-01   1.35896e-01
Si    5.42928e+00   5.45824e+00   5.41250e+00  2.07180e-01  -3.58402e-01   5.94485e-01
Si    8.15662e+00   8.17567e+00   5.44115e+00  7.63660e-02  -3.92097e-01  -4.04254e-01
Si    5.42168e+00   8.15838e+00   8.17675e+00  5.93639e-01   1.41039e-01  -3.01135e-01
Si    8.16770e+00   5.47195e+00   8.15210e+00  2.17589e-02  -8.58239e-01  -2.33504e-02
Si    6.81857e+00   6.79724e+00   6.79244e+00 -5.68004e-01   3.37991e-01   6.63855e-03
Si    9.51071e+00   9.51457e+00   6.77341e+00  3.86683e-01   2.20445e-01   2.57317e-01
Si    6.79113e+00   9.54589e+00   9.53903e+00 -2.10912e-01   2.28537e-01  -3.71369e-01
Si    9.50450e+00   6.77669e+00   9.54065e+00  1.29136e-01   5.27212e-01  -9.11250e-02
